ABINIT
ABINIT/en
ACPYPE
ADF
ADF/en
AI and Machine Learning
AI and Machine Learning/en
AMBER
AMBER/en
AMS
AMS/en
ANSYS
ARM software
ARM software/en
ASCP
A tutorial on 'tar'
A tutorial on 'tar'/en
Abaqus
Abaqus/en
Abinit
Access to files of users leaving a project
Access to files of users leaving a project/en
Accessing CVMFS
Accessing CVMFS/en
Accessing object storage with AWS CLI/en
Accessing object storage with WinSCP
Accessing object storage with WinSCP/en
Accessing object storage with s3cmd
Accessing object storage with s3cmd/en
Accessing our software environment on your computer
Accessing the Arbutus object storage with AWS CLI
Accessing the Arbutus object storage with AWS CLI/en
Account renewal
Account renewal/en
Account renewal FAQ
Account renewal FAQ/en
Acknowledging the Alliance
Acknowledging the Alliance/en
Advanced Job Submission
Advanced Job Submission/en
Advanced Jupyter configuration
Advanced Jupyter configuration/en
Advanced MPI scheduling
Advanced MPI scheduling/en
AiiDA
Alliance CCV submission guide
Alliance CCV submission guide/en
Allinea
Allinea software
Allocations and compute scheduling
Allocations and compute scheduling/en
Allocations and resource scheduling
AlphaFold
AlphaFold2
AlphaFold2/en
AlphaFold3
AlphaFold3/en
Altair FEKO
Altair FEKO/en
Amber
Amsterdam Density Functional Modeling Suite
Anaconda
Anaconda/en
Ansys
Ansys/en
AnsysEDT
AnsysEDT/en
Apache Spark
Apache Spark/en
Apply for a CCDB account
Apply for a CCDB account/en
Apptainer
Apptainer/en
Arbutus
Arbutus/West Cloud
Arbutus/en
Arbutus CephFS
Arbutus CephFS User Guide
Arbutus CephFS user guide
Arbutus Migration Guide
Arbutus Migration Guide/en
Arbutus Object Storage
Arbutus Object Storage User Guide
Arbutus Object Storage User Guide/en
Arbutus User Documentation
Arbutus object storage
Arbutus object storage/en
Arbutus object storage clients
Arbutus object storage clients/en
Arbutus user documentation
Archiving and Compressing Data for Migration
Archiving and compressing files
Archiving and compressing files/en
Arrow
Arrow/en
Ascp
Aspera Connect
Aspera connect
Astronomy and High Energy Physics Interactive Analysis Facility
Authoring Guidelines
Authoring guidelines
Authoring guidelines/en
Automating VM creation
Automating VM creation/en
Automation in the context of multifactor authentication
Automation in the context of multifactor authentication/en
Autotools
Autotools/en
Available Python wheels
Available Python wheels/en
Available software
Available software/en
Available wheels
BEAST
BEAST/en
BLAST
BLAST+
BLAST/en
BLAS and LAPACK
BLAS and LAPACK/en
BUSCO
BUSCO/en
Backing up your VM
Backing up your VM/en
Beluga
Beluga/en
Best practices for data migration
Best practices for job submission
Best practices for job submission/en
Bioinformatics
Bioinformatics/en
Biomolecular simulation
Biomolecular simulation/en
Biorepo Containers
Biorepo containers
Blast
BraCeR
Build tools
Build tools/en
Building a Software Carpentry style lesson on the wiki
Building a Software Carpentry style lesson on the wiki/en
Building a web portal
Béluga
Béluga/en
C
C++
C++/en
C/en
CASTEP
CASTEP/en
CC-Cloud
CC-Cloud/Maintenance
CC-Cloud Resources
CESM
CFD
CFOUR
CFOUR/en
CMake
CMake/en
COMSOL
COMSOL/en
COVID
COVID19 related requests
COVID19 related requests/en
CP2K
CP2K/en
CPLEX
CPLEX/en
CPMD
CPMD/en
CUDA
CUDA/en
CUDA tutorial
CUDA tutorial/en
CVMFS
CVMFS/en
Cedar
Cedar/en
Cellranger
CephFS
CephFS/en
Changing username
Chapel
Chapel/en
CheckV/en
CirQ
CirQ/en
Classiq
Cloud
Cloud/en
Cloud Account Lifecycle Management
Cloud Images
Cloud Quick Start
Cloud Quick Start/en
Cloud RAS Allocations
Cloud RAS Allocations/en
Cloud Technical Glossary
Cloud Technical Glossary/en
Cloud resources
Cloud resources/en
Cloud shared security responsibility model
Cloud shared security responsibility model/en
Cloud storage options
Cloud storage options/en
Cloud troubleshooting guide
Cloud troubleshooting guide/en
Clusterstats
Comet.ml
Comet.ml/en
Computational chemistry
Computational chemistry/en
Computational fluid dynamics
Computational fluid dynamics/en
Compute Canada Documentation
Compute Canada Wiki
Conda
Configuring Apache to use SSL
Configuring Apache to use SSL/en
Configuring WSL as a ControlMaster relay server
Configuring WSL as a ControlMaster relay server/en
Configuring a data or web server
Configuring a data or web server/en
Connecting with MobaXTerm
Connecting with MobaXTerm/en
Connecting with PuTTY
Connecting with PuTTY/en
Creating a Linux VM
Creating a Webserver on CC-Cloud
Creating a Webserver on CC Cloud
Creating a Windows VM
Creating a web server on a cloud
Creating a web server on a cloud/en
Cryosparc
Cybersecurity: Personal computer health check
Cybersecurity: Personal computer health check/en
Cybersecurity Basics/Health Check
Cybersecurity for your personal computer
Cybersecurity for your personal computer/en
DBaaS/en
DDT
DL POLY
DL POLY/en
DMTCP
DMTCP/en
Dalton
Dalton/en
Dar
Dar/en
Dask
Dask/en
Data Management
Data Management at Niagara
Data backup and restoration
Data management at Niagara
Data management at Trillium
Data management at Trillium/en
Data protection, privacy, and confidentiality
Data protection, privacy, and confidentiality/en
Data transfer
Database servers
Database servers/en
Debugging and profiling
Debugging and profiling/en
Dedalus
Dedalus/en
Deepspeed
Delft3D
Diskusage Explorer
Diskusage Explorer/en
DummyWheel
DummyWheel/en
EasyBuild
EasyBuild/en
Environnements logiciels standards
Estimer et prévenir le gaspillage des ressources
FAQ
FDTD Solutions
FEniCS
FEniCS/en
FMRIPrep
FMRIPrep/en
FS Quotas
FS quotas
FTP server in CC-Cloud
FTP server in the Cloud
FTP server in the Cloud/en
Faiss
Faiss/en
FastTree
FastTree/en
File transfer
Files of leaving sponsored users
Filesystem
Fir
Fir/en
Firedrake
Flax
Fluent
Formation
Fortran
Fortran/en
FreeSurfer
FreeSurfer/en
Frequently Asked Questions
Frequently Asked Questions/en
Frequently Asked Questions about the CCDB
Frequently Asked Questions about the CCDB/en
GAMESS
GAMESS-US
GAMESS-US/en
GATK
GATK/en
GBD page
GBrowse
GBrowse/en
GCC C++ Dual ABI
GCC C++ Dual ABI/en
GDAL
GDAL/en
GDB
GDB/en
GIS
GIS/en
GLOST
GLOST/en
GNU Parallel
GNU Parallel/en
GP3
GP4
GPAW
GPAW/en
GROMACS
GROMACS/en
Galaxy
Galaxy/en
Gaussian
Gaussian/en
Gaussian error messages
Gaussian error messages/en
General directives for migration
General directives for migration/en
Generating SSH keys in Windows
Generating SSH keys in Windows/en
Geographic Information Systems
Geographic information systems
Getting Started
Getting started
Getting started/en
Getting started with the new national systems
Getting started with the new national systems/en
Git
Git/en
Globus
Globus/en
Globus Command Line Interface
Gnu Parallel
Gnu Parallel/en
Gprof
Gprof/en
Graham
Graham/en
Graham Cloud
Guide ML
Guide de démarrage
Gurobi
Gurobi/en
HDF5
HDF5/en
HPC4Health
HPC4Health/en
Ha fip
Handling large collections of files
Handling large collections of files/en
Helios
Helios/en
How to obtain the list of users in a PAICE tier
Huggingface
Humanities
Humanities and Social Sciences
Humanities and Social Sciences/en
Hyper-Q / MPS
Hyper-Q / MPS/en
Hélios
Hélios/en
ImageNet
Including a command within the wiki
Including a command within the wiki/en
Including a source code file within the wiki
Including a source code file within the wiki/en
Including source code within the wiki
Including source code within the wiki/en
Infrastructure for Research Data Management
Infrastructure renewal
Infrastructure renewal/en
Infrastructure renewal completed events
Infrastructure renewal completed events/en
Installing software in your home directory
Installing software in your home directory/en
Interpretable AI
Java
Java/en
Job arrays
Job arrays/en
Job scheduling
Job scheduling policies
Job scheduling policies/en
Julia
Julia/en
Jupyter
Jupyter/en
JupyterHub
JupyterHub/en
JupyterLab
JupyterLab/en
JupyterLab fr
JupyterNotebook
JupyterNotebook/en
Kentutils
Keras
Keras/en
Killarney
Killarney/en
LAMMPS
LAMMPS/en
LP
LS-DYNA
LS-DYNA/en
Large Language Models (LLMs)
Large Scale Machine Learning (Big Data)
Large Scale Machine Learning (Big Data)/en
LibTorch
Libtorch
Linux introduction
Linux introduction/en
Lmod
Lumerical
Lumerical/en
MAFFT
MAFFT/en
MATLAB
MATLAB/en
META-Farm
META-Farm/en
META-Farm: Advanced features and troubleshooting
META-Farm: Advanced features and troubleshooting/en
META: A package for job farming
META: Advanced features and troubleshooting
META package for serial farming
ME modelling
MFA
MIG
MIKE
MIKE/en
ML Performance Guide
MLflow
MPI
MPI-IO
MPI-IO/en
MPI/en
MPI4py
MPI4py/en
MRCC
MRCC/en
MXNet
MXNet/en
Machine Learning tutorial
Make
Make/en
Managing Slurm accounts
Managing Slurm accounts/en
Managing your Linux VM
Managing your Linux VM/en
Managing your cloud resources with OpenStack
Managing your cloud resources with OpenStack/en
Materials Studio
Materials Studio/en
Mathematica
Matlab
Matlab/en
Meltdown and Spectre bugs
Meltdown and Spectre bugs/en
MetaPhlAn
MetaPhlAn/en
Metrix
Metrix/en
Migrating between clusters
Migrating between clusters/en
Migration2016
Migration2016:First Announcement 8Aug2016
Migration2016:Jasper Hungabee Migration 2016
Migration2016:Migrating to SFU Storage
Migration2016:Migrating to Waterloo Storage
Migration2016:National Data Cyberinfrastructure
Migration2016:Recommendations for Migration to New Systems
Migration to the new standard environment
Migration to the new standard environment/en
Migration vers l environnement standard 2020
Migration vers l’environnement standard 2020
Mii
Mii/en
Mist
Mist/en
Modules
Modules/en
Modules avx
Modules avx2
Modules avx512
Modules specific to Niagara
Modules sse3
MonarQ
MonarQ/en
MonarQ/en-ca
Monarq
Monitoring jobs
Monitoring jobs/en
Moose
Moose/en
Mounting /project space on a VM in the cloud
Mounting /project space on a VM in the cloud/en
Mp2
Mp2/en
MrBayes
MrBayes/en
MuJoCo
MuJoCo/en
Mujoco
Multi-Instance GPU
Multi-Instance GPU/en
Multifactor authentication
Multifactor authentication/
Multifactor authentication/en
Multifactor authentication/f
NAMD
NAMD/en
NBO
NCCL
NDC
NVTOP
NVTOP/en
Narval
Narval/en
National systems
National systems/en
Nearline
NetCDF
NetCDF/en
Nextcloud
Nextcloud/en
Nextflow
Nextflow/en
Nibi
Nibi/en
Nibi Cloud
Nvprof
ORCA
ORCA/en
Octave
OpenACC
OpenACC Tutorial
OpenACC Tutorial/en
OpenACC Tutorial - Adding directives
OpenACC Tutorial - Adding directives/en
OpenACC Tutorial - Data movement
OpenACC Tutorial - Data movement/en
OpenACC Tutorial - Introduction
OpenACC Tutorial - Introduction/en
OpenACC Tutorial - Optimizing loops
OpenACC Tutorial - Optimizing loops/en
OpenACC Tutorial - Profiling
OpenACC Tutorial - Profiling/en
OpenCV
OpenCV/en
OpenFOAM
OpenFOAM/en
OpenMM
OpenMM/en
OpenMP
OpenMP/en
OpenMolcas
OpenSim
OpenStack
OpenStack Command Line Clients
OpenStack VM Setups/en
OpenStack command line clients
OpenStack command line clients/en
OpenStack dashboard GUI
Open Babel
Open Babel/en
Open OnDemand
Open OnDemand/en
Optuna
Ordonnancement
Ordonnanceur
PAICE Allocations and compute scheduling
PGPROF
PGPROF/en
Page translation
Page translation/en
ParaView
ParaView/en
Parabricks
Parabricks/en
Parallel
Parallel Debugging with DDT
Parallel I/O introductory tutorial
Parallel I/O introductory tutorial/en
Parasail
Parasail/en
PennyLane
PennyLane/en
Perl
Perl/en
Persistent Services In The Cloud
Pgdbg
Pgdbg/en
Points de contrôle
Points de contrôle/en
Policy
Portail
Programming guide
Programming guide/en
Project Layout
Project layout
Project layout/en
Prolonging terminal sessions
Prolonging terminal sessions/en
Pthreads
Pthreads/en
PyKeOps
PyKeOps/en
PyRETIS
PyRETIS/en
PyTorch
PyTorch/en
Python
Python/en
Python wheels
Pytorch
QGIS
QIIME
QIIME/en
Qiskit
Qiskit/en
QuantumATK
QuantumATK/en
Quantum ESPRESSO
Quantum ESPRESSO/en
Quantum computing services
Quota
R
R-INLA
R-INLA/en
R/en
RAC
RAC Annual Reports
RAC Annual Reports/en
RAC FAQ
RAC FAQ/en
RAC Fast Track Application Guide
RAC Fast Track Application Guide/en
RAC application guide
RAC application guide/en
RAC available resources
RAC available resources/en
RAC transition FAQ
RAC transition FAQ/en
RAPIDS
RAPIDS/en
RDKit
RDKit/en
RDM
README files
README files/en
RPP Annual Progress Report Guidelines
RPP Annual Progress Report Guidelines/en
Rapid Access Service
Rapid Access Service/en
Ray
Recent changes to the software environment
Recovering data from a compromised VM
Recovering data from a compromised VM/en
Research Data Management
Research Data Management/Infrastructure
Research Data Management/en
Resource Allocation Competition
Resource Allocation Competition/en
Resources for Research Data Management
Rorqual
Rorqual/en
Running MPI jobs with SLURM
Running jobs
Running jobs/en
Rust
Rust/en
SAIGE
SAIGE/en
SAS
SFTP
SLURM
SQLite
SQLite/en
SSH
SSH/en
SSH Keys
SSH Keys/en
SSH changes
SSH configuration file
SSH configuration file/en
SSH host keys
SSH host keys/en
SSH security improvements
SSH security improvements/en
SSH tunnelling
SSH tunnelling/en
Samtools
Samtools/en
Scalability
Scalability/en
Scheduler
Scheduling
Scratch purging policy
Scratch purging policy/en
Securing your account
Securing your account/en
Security considerations when running a VM
Security considerations when running a VM/en
Security corrections for virtual machines
Self-paced courses
Self-paced courses/en
Services d'informatique quantique
Services d'informatique quantique/en
Setting up GUI Desktop on a VM
Setting up GUI Desktop on a VM/en
Setup a data or web server
Sharing data
Sharing data/en
Siku
Singularity
Slicer
Slicer/en
Snowflurry
Snowflurry/en
Soutien technique
SpaCy
SpaCy/en
Spark
Standard software environments
Standard software environments/en
Star-CCM+
Star-CCM+/en
StarCCM
Stata
Storage and file management
Storage and file management/en
Structure
Structure/en
SubatomicPhysics
SubatomicPhysics/en
Symbolic algebra software
Symbolic algebra software/en
System status
System status/en
Systems overview
TENSORFLOW
TamIA
TamIA/en
Tamia
Tar
Tar/en
Technical Glossary for the Resource Allocation Competitions
Technical Support
Technical documentation
Technical documentation/en
Technical glossary for resource allocation competitions
Technical glossary for the resource allocation competitions
Technical glossary for the resource allocation competitions/en
Technical support
Technical support/en
TensorFlow
TensorFlow/en
Tensorboard
Tensorboard/en
Tensorflow
Terminology
Terraform
Terraform/en
Tesseract
Test-moderation
Test-syntax
Test12
TestPage
Testing With Graphics
Torch
Torch/en
Transferring data
Transferring data/en
Transferring files
Transferring files with Aspera Connect/ascp
Transferring files with Aspera Connect/ascp/en
Transition from Niagara to Trillium
Transition from Niagara to Trillium/en
Transpileur quantique
Transpileur quantique/en
Trillium
Trillium/en
Trillium Open OnDemand Quickstart
Trillium Open OnDemand Quickstart/en
Trillium Quickstart
Trillium Quickstart/en
Tuning Lustre
Tuning Lustre/en
Tutoriel Apprentissage machine
Tutoriel Apprentissage machine/en
User roles to access resources and services of the Alliance Federation
User roles to access resources and services of the Alliance Federation/en
Using $SLURM TMPDIR
Using Conda in Apptainer
Using Conda in Apptainer/en
Using GPUs with SLURM
Using GPUs with Slurm
Using GPUs with Slurm/en
Using Nix
Using Nix: nix-env
Using SSH keys in Linux
Using SSH keys in Linux/en
Using Terraform
Using a RAC
Using a new empty volume on a Linux VM
Using a new empty volume on a Linux VM/en
Using a new empty volume on a Windows VM
Using a resource allocation
Using a resource allocation/en
Using cloud GPUs
Using cloud gpu
Using cloud vGPUs
Using cloud vGPUs/en
Using ipv6 in cloud
Using ipv6 in cloud/en
Using modules
Using nearline storage
Using nearline storage/en
Using node-local storage
Using node-local storage/en
Using swift
Utiliser des GPUs avec Slurm
Utiliser des modules
Utiliser des modules/en
Utiliser les modules
Uv
Uv/en
VASP
VASP/en
VLLM
VMD
VMD/en
VM Best Practices
VM Best Practices/en
VM recovery via cloud console
VM recovery via cloud console/en
VMsProjectAccess
VNC
VNC/en
VTK
VTK/en
Valgrind
Valgrind/en
Vector
Version control
Version control/en
VirSorter2
VirSorter2/en
Virtual machine flavors
Virtual machine flavors/en
Virtualenv
VisIt
VisIt/en
Visual Studio Code
Visual Studio Code/en
Visualization
Visualization/en
VoxCeleb
Vtune
Vtune/en
Vulcan
Vulcan/en
WRF
WRF/en
Weights & Biases (wandb)
Weights & Biases (wandb)/en
What is a scheduler?
What is a scheduler?/en
Wheels
Wheels2.7
Wheels3.10
Wheels3.11
Wheels3.12
Wheels3.13
Wheels3.14
Wheels3.5
Wheels3.6
Wheels3.7
Wheels3.8
Wheels3.9
Windows Subsystem for Linux (WSL)
Windows Subsystem for Linux (WSL)/en
Working with VMs
Working with VMs/en
Working with images
Working with images/en
Working with processors that have non-uniform memory access (NUMA)
Working with volumes
Working with volumes/en
X2go
Yt
Yt/en
Zfs
ÉcoleCQ2019
Événements passés
⧼sidebar-available-software-link⧽
⧼sidebar-trillium-link⧽
User:Andrp
User:Berberov
User:Cgeroux
User:Fm
User:Gbnewby
User:Kerrache
User:Knewson
User:Mboisson
User:Moonj
User:Nathanw
User:Pjmann
User:Ppomorsk
User:Ppomorsk/AiiDA
User:Ppomorsk/Graham2 draft
User:Rozmanov
User:Skhan
User:Stuekero
User:Stuekero/BEAST
User:Stuekero/Firedrake
User:Stuekero/GROMACS
User:Stuekero/Julia
User:Stuekero/LAMMPS
User:Stuekero/Lumerical
User:Stuekero/MIKE
User:Stuekero/StarCCM
File:0-guided analysis.png
File:1-guided analysis.png
File:10 dernières tâches Sommaire Utilisateur.png
File:1 CPU.png
File:1st-panel.png
File:2-guided analysis.png
File:2.png
File:3-guided analysis.png
File:3.png
File:32 CPU not fully used multithread.png
File:4-guided analysis.png
File:600px-Vidyo login.png
File:8 CPU using 1.png
File:Access Systems-fr.png
File:Access Systems.png
File:Accessing CC Compute and Storage Environment.pdf
File:AccountAgreement-FR.png
File:Account application en.png
File:Account application fr.png
File:Account details en.png
File:Account details fr.png
File:Add-Rule-Button-FR.png
File:Add-Rule-Button.png
File:Add-Rule-Form-FR.png
File:Add-Rule-Form-RDP.png
File:Add-Rule-Form.png
File:Add Allowed Address Pair.png
File:Ansys CFX launcher.png
File:Ansys EDT launcher.png
File:Ansys Fluent launcher.png
File:Ansys Fluent web launcher.png
File:Ansys Mapdl launcher.png
File:Ansys Workbench launcher.png
File:Apache2-test-page.png
File:Aperçu de la page d'accueil du portail.png
File:Application used CPU.png
File:Application utilisé compte GPU.png
File:ArbutusObjectStorageBucketKeys.png
File:ArbutusS3Endpoint.png
File:Bande passante-GPU.png
File:Bande passante disque cloud.png
File:Bande passante réseau cloud.png
File:Batch201503.pdf
File:Bell Circuit CirQ.png
File:Bell Graph.png
File:Bell Graph CirQ.png
File:Benchmark-DM.png
File:Benchmark2-DM.png
File:Block grid.png
File:Block grid copy.png
File:Block threadin model.png
File:Block threadin model copy.png
File:CCDB MFA prompt.png
File:CCDB Yubikeys.png
File:CCDB registration EN.png
File:COMSOL launcher.png
File:CPU compte GPU.png
File:CPU job array.png
File:CPU multifil.png
File:CPU pas utilisé.png
File:CPU ressources utilisés détails.png
File:CPU série.png
File:Capture d’écran, le 2024-09-26 à 10.49.16.png
File:Cc service add member success screen.png
File:Cc service management screen.png
File:Cc services screen.png
File:Ccdb-keys-fig1-FR.png
File:Ccdb-keys-fig1.png
File:Ccdb-keys-fig2-B-FRN.png
File:Ccdb-keys-fig2-FRN.png
File:Ccdb-keys-fig2.png
File:Ccdb-keys-fig3-FRN.png
File:Ccdb-keys-fig3.png
File:Ccdb registration fr.png
File:Ccdb view use by compute resource.png
File:Ccdb view use by compute resource fr.png
File:Ccdb view use by compute resource monthly.png
File:Ccdb view use by compute resource monthly fr.png
File:Ccdb view use by compute resource monthly proj edit.png
File:Ccdb view use by compute resource monthly proj fr edit.png
File:Ccdb view use by submitter summary edit.png
File:Ccdb view use by submitter summary fr edit.png
File:Ccdb view use by submitter user edit.png
File:Ccdb view use by submitter user fr edit.png
File:Cephfs config.png
File:Cephfs created.png
File:Classiq terminal browser.png
File:Cloud docs reorganize.pdf
File:Cloud shared security responsibility model.png
File:Cluster.png
File:Coeur CPU Mémoire.png
File:Coeur CPU gaspillé.png
File:Coeur CPU gaspillé compte GPU.png
File:Coeurs CPU.png
File:Commande de soumission-2.png
File:Commande de soumission-3.png
File:Commande de soumission-GPU.png
File:Commande de soumission.png
File:Common mistakes to avoid.pdf
File:Composer.png
File:Composer3.png
File:Confirm.png
File:Confirm user en.png
File:Confirm user fr.png
File:Console.png
File:Contiguous.png
File:Core equivalent diagram GP.png
File:Cpu multiprocesseur cpu-per-task-2.png
File:Create-Key-Pair-Button-FR.png
File:Create-Key-Pair-Button.png
File:Create-Key-Pair-Form-FR.png
File:Create-Key-Pair-Form.png
File:Create-Volume-Button.png
File:Create-Volume-Form-FRN.png
File:Create-Volume-Form.png
File:Creating a volume EN.png
File:Creating a volume FR.png
File:Cuda-blocks-parallel.png
File:Cuda-threads-blocks.png
File:Cuda threads.png
File:Cvc1 fr.png
File:Cvc2 fr.png
File:Cvc4 fr.png
File:Cvc5 fr.png
File:Cvc6 fr.png
File:Cvc7 fr.png
File:CyberDuck configuration for multifactor authentication.png
File:CyberduckFRN.png
File:DDT-VNC-1.png
File:DDT-VNC-2.png
File:DDdt wiki1.png
File:DDdt wiki10.png
File:DDdt wiki11.png
File:DDdt wiki12.png
File:DDdt wiki13.png
File:DDdt wiki14.png
File:DDdt wiki15.png
File:DDdt wiki16.png
File:DDdt wiki17.png
File:DDdt wiki18.png
File:DDdt wiki19.png
File:DDdt wiki2.png
File:DDdt wiki20.png
File:DDdt wiki21.jpg
File:DDdt wiki3.png
File:DDdt wiki4.png
File:DDdt wiki5.png
File:DDdt wiki6.png
File:DDdt wiki7.png
File:DDdt wiki8.png
File:DDdt wiki9.png
File:DRAC-Shibboleth-Login-Fr.png
File:DRAC-Shibboleth-Login.png
File:DWB META.png
File:Dashboard.png
File:Dbaas-ca.pem.zip
File:Ddt wiki1.png
File:Ddt wiki10.png
File:Ddt wiki11.png
File:Ddt wiki12.png
File:Ddt wiki13.png
File:Ddt wiki14.png
File:Ddt wiki15.png
File:Ddt wiki16.png
File:Ddt wiki17.png
File:Ddt wiki18.png
File:Ddt wiki19.png
File:Ddt wiki2.png
File:Ddt wiki20.png
File:Ddt wiki21.jpg
File:Ddt wiki3.png
File:Ddt wiki4.png
File:Ddt wiki5.png
File:Ddt wiki6.png
File:Ddt wiki7.png
File:Ddt wiki8.png
File:Ddt wiki9.png
File:Default security group EN.jpg
File:Default security group EN.png
File:Default security group FR.png
File:Default security group rules en.png
File:Default security group rules fr.jpg
File:Default security group rules fr.png
File:Demander trop de mémoire.png
File:Desktop launchers.png
File:Details tab.png
File:Details tab fr.png
File:Diskaccess.png
File:Diskaccess2.png
File:Diskaccess3.png
File:Duc gui navigation.gif
File:Duc gui navigation.gif.gif
File:Duo-mobile-add-account.png
File:Duo-mobile-app-icon.png
File:Duo-mobile-option-en.png
File:Duo-mobile-option.png
File:Duo-mobile-scan-qr-code.png
File:Détail de la tâche.png
File:Détails sur la tâche-2.png
File:Détails sur la tâche.png
File:Eclipse256.png
File:Eclipse32.png
File:Eclipse48.png
File:EquivalentC1.png
File:EquivalentCoeur.png
File:EquivalentG1.png
File:Equivalent coeur1 2.png
File:EquivalentsG1.5 (memoire).png
File:EquivalentsG1.66 (coeurs).png
File:EquivalentsG2.6 V100-32gb.png
File:EquivalentsG2 (GPUs).png
File:EquivalentsG4 A100-40gb.png
File:Espace utilisé.png
File:Espace utilisé sur le disque local.png
File:ExampleGPUMemory.png
File:ExampleGPUPower.png
File:ExampleGPUUtilisation.png
File:Explora-icon.png
File:FINAL FRN Flowchart SSHD changes - Summer 2019 - v1.4.jpg
File:FINAL Flowchart SSHD changes - Summer 2019 - v1.4.jpg
File:FINAL Flowchart SSHD changes - Summer 2019 - v1.4 - Copy.jpg
File:File Systems.pdf
File:File browser.png
File:Find-group-name-EN.png
File:Find-group-name-FR.png
File:Find-group-name-annotated.png
File:Find-group-name.png
File:Fircpulayout.png
File:Firgpulayout.png.png
File:Firsteps16.png
File:Firststeps-select.png
File:Firststeps.png
File:Firststeps16.png
File:Firststeps16 (1).png
File:Firststeps16 (2).png
File:Firststeps48.png
File:Firststeps48 hov.png
File:Firststeps (1).png
File:Flavor tab.png
File:Flavor tab 2.png
File:Flavor tab 2 fr.png
File:Flavor tab fr.png
File:Flavors.png
File:Flavour-1.png
File:Flavour-2.png
File:Flavour-3.png
File:Four RGU equivalents.png
File:Fs nav.png
File:Fs nav (1).png
File:GPU-architecture.png
File:GPU - demander trop de coeurs.png
File:GPU - demander trop de coeurs 2.png
File:GPU active 1 GPU sur 4.png
File:GPU and a half (cores).png
File:GPU and a half (memory).png
File:GPU cycles de calcul utilisé.png
File:GPU equivalent diagram.png
File:GPU gaspillé compte GPU.png
File:GPU graph exemple gaspillage.png
File:GPU power 1 GPU sur 2.png
File:GPU power 1 GPU sur 4.png
File:GPU utilisation 1 gpu sur 2.png
File:GPU utilisé par utilisateur compte GPU.png
File:Gauss NBO 2026 2.pdf
File:Gcp-applet.png
File:General info.pdf
File:Generate Yubikey IDs.png
File:Gephi201603.pdf
File:GetGlobusConnectPersonal.png
File:Getting An Account.pdf
File:Getting An Account FRN.pdf
File:Getting help on Compute Canada (wide 16-9).pdf
File:Globus-Add-Permissions.png
File:Globus-Add-Personal-Endpoint.png
File:Globus-Initiate-Transfer.png
File:Globus-Login-Organization-Fr.png
File:Globus-Login-Organization.png
File:Globus-Select-Endpoint.png
File:Globus-Transfer-Files.png
File:Globus-file-manager.png
File:Globus-select-collection-rorqual.png
File:Globus-select-collection.png
File:Globus CreatingNewGroup-1024x717.png
File:Globus ManagingAccess-1024x745-changed.png
File:Globus ManagingAccess-1024x745.png
File:Globus RemovingSharedEndpoint-1024x322.png
File:Globus SharedEndpoint1-1024x607.png
File:Globus SharedEndpoint2.png
File:Globus SharedEndpoint3-1024x430.png
File:Globus Transfer Sync Options.png
File:Globus button.png
File:Globus launcher.png
File:Globusconnectpersonal.png
File:Gmx-scaling.png
File:Gp3-network-topo.png
File:Graham-interconnect.png
File:Graphs201605.pdf
File:Home.png
File:HostSetting.png
File:Hpc IO.png
File:IOPS, bande passante.png
File:IOPS.png
File:IOPS disque.png
File:Image.png
File:Image FR.png
File:Images-1.png
File:Images-2.png
File:Import-Key-Pair-Button-FR.png
File:Import-Key-Pair-Button.png
File:Import-Key-Pair-Form-FR.png
File:Import-Key-Pair-Form.png
File:Import key pair 2.png
File:Import key pair 2 fr.png
File:Import key pair 3.png
File:Import key pair 3 fr.png
File:Information ordonnanceur-2.png
File:Information ordonnanceur-GPU.png
File:Information ordonnanceur.png
File:Install-globus-connect-personal.png
File:Instancemenu.png
File:Interface menu attach.png.png
File:Intro-DM.png
File:Job-array-mal-configuré-memoire.png
File:Job-array-mal-configuré.png
File:Julia launcher.png
File:Jupyter-session.png
File:Jupyter-submit.png
File:JupyterHub Server Options.png
File:JupyterHub Spawn failed Timeout.png
File:JupyterLab HomeTab.png
File:JupyterLab Launcher Ansys Fluent.png
File:JupyterLab Launcher Desktop.png
File:JupyterLab Launcher Julia.png
File:JupyterLab Launcher LibreQDA.png
File:JupyterLab Launcher OpenRefine.png
File:JupyterLab Launcher Python.png
File:JupyterLab Launcher RStudio.png
File:JupyterLab Launcher Terminal.png
File:JupyterLab Launcher VSCode.png
File:JupyterLab Launcher with modules.png
File:JupyterLab Softwares.png
File:JupyterLab Softwares ScipyStack.png
File:Key pair tab.png
File:Key pair tab fr.png
File:Launch-Instance-Button-FR.png
File:Launch-Instance-Button-Kilo.png
File:Launch-Instance-Button.png
File:Launch-Instance-Form-FR.png
File:Launch-Instance-Form.png
File:LaunchProfiles.png
File:LauncherAdvancedArguments.png
File:LauncherArguments.png
File:LauncherBasicArguments.png
File:LibreQDA launcher icon.png
File:Light-bulb.png
File:Load arrow.png
File:Locks.png
File:Logo comsol blue 1571x143.png
File:MATLAB launcher.png
File:MLflow launcher icon.png
File:MPI 200 cores Running Threads.png
File:MPI 200 cores not used.png
File:MPI IO1.png
File:MPI IO2.png
File:MPI IO3.png
File:MPI IO4.png
File:MPI multifil bien.png
File:MPI multifil pas bon.png
File:Manage-Floating-IP-Associations-Form-FR.png
File:Manage-Floating-IP-Associations-Form.png
File:Manage-Rules-Button-FR.png
File:Manage-Rules-Button.png
File:Manage attachments EN.png
File:Manage attachments FR.png
File:Managing attachments FRN.jpg
File:Managing jobs.pdf
File:Matlab-vnc.png
File:Mauvaise utilisation GPU, au debut seulement.png
File:Mauvaise utilisation GPU seulement a la fin.png
File:Memoire multiprocesseur trop de cpu.png
File:Memoire multithreading.png
File:Memory.png
File:Meta1.png
File:Meta2.png
File:Metrix launcher.png
File:Mlflow.png
File:MobaXterm-VSL-localdriveC.jpg
File:MobaXterm-setup.jpg
File:MobaXterm SSH-browser type.png
File:MobaXterm X11.png
File:MobaXterm basic.png
File:MobaXterm connected.png
File:MobaXterm ssh key.png
File:Mobaxterm ssh.png
File:Mobaxterm ssh2.png
File:Mobaxterm x11.png
File:Motorcycle.jpeg
File:Multiprocesseur 64 coeurs 4 noeuds.png
File:Multiprocesseur memoire.png
File:Multiprocesseur trop coeur -2.png
File:MyAccount-Agreement.png
File:MÉmoire multiprocesseur trop coeur -2.png
File:Mémoire-GPU.png
File:Mémoire.png
File:Mémoire - GPU - MIG potentiel.png
File:Mémoire 1 GPU sur 2.png
File:Mémoire 1 GPU sur 4.png
File:Mémoire GPU.png
File:Mémoire ajustée.png
File:Mémoire cloud.png
File:Mémoire compte.png
File:Mémoire compte GPU.png
File:Mémoire font rouge série.png
File:Mémoire gaspillée.png
File:Mémoire gaspillée GPU.png
File:Mémoire multifil.png
File:Mémoire multiprocesseur cpu-per-task-2.png
File:Mémoire tâche en série.png
File:Mémoire tâche série.png
File:NVTOP.png
File:NVidia Nsight Systems launcher.png
File:Naming-duo-mobile-device-en.png
File:Naming-duo-mobile-device.png
File:Ncurse duc.png
File:Netlist.png
File:Network ports tab.png
File:Network ports tab fr.png
File:Networks tab.png
File:Networks tab fr.png
File:Nextflow2014 big.png
File:Nibi-desktop-running.png
File:Nibi-desktop.png
File:Nibi-jupyterlab.png
File:Not changed co-pi ccv status en.png
File:Not changed screen shot 2021-09-03 at 9.59.00 am.png
File:Not changed update ccv button en.png
File:Nvvp-pic0.png
File:Nvvp-pic1.png
File:ObjectStoragemenu.png
File:Octave launcher.png
File:Ood-active-jobs.png
File:Ood-dashboard.png
File:Ood-desktop-octave.png
File:Ood-file-browser.png
File:Ood-job-composer.png
File:Ood-logo.png
File:Ood-module-browser.png
File:Ood-oc-gpus.png
File:Ood-oc-history.png
File:Ood-oc-job-submit.png
File:Ood-oc-job.png
File:Ood-oc-shortcuts.png
File:Ood-quota-button.png
File:Ood-session-id.png
File:Ood-storage-quotas.png
File:Ood-terminal.png
File:Ood session tab.png
File:OpenRefine launcher icon.png
File:OpenStack-Dashboard-Compute-Overview-FR.png
File:OpenStack-Dashboard-Compute-Overview-fr.png
File:OpenStack-Dashboard-Compute-Overview.png
File:OpenStack-Dashboard-Compute-Volumes-FRN.png
File:OpenStack-Dashboard-Compute-Volumes.png
File:Openacc profiling1.png
File:Optional transfer of file ownership-FR.png
File:Optional transfer of file ownership.png
File:Os-upload-volume-to-image-FRN.png
File:Os-upload-volume-to-image-fr.png
File:Os-upload-volume-to-image.png
File:OspraySlides.pdf
File:PDF button.png
File:ParaView launcher.png
File:Parallel IO.png
File:Parallel rendering.png
File:Parallel rendering2.png
File:Parallel rendering small.png
File:Paraview201602.pdf
File:Paraview201707.pdf
File:Pencil button.png
File:Pennylane Snowflurry-Diagram.png
File:Pennylane Snowflurry-Diagram1.png
File:Pgdbg-source-win.png
File:Pgdbg-toolbar-drop-down-lists.png
File:Pgdbg gui schematic.png
File:Pgdbg gui schematic FRN.png
File:Pgdbg mpi.png
File:Pgprof-pic0.png
File:Pgprof-pic1.png
File:Pgprof-pic2.png
File:Pgprof-pic3.png
File:Pgprof-start-session.png
File:Pgprof-visualizing.png
File:Pgprof2.png
File:Pgprof new0.png
File:Portail Utilisateur vos comptes.png
File:Portail utilisateur 10 dernières tâches.png
File:Portail utilisateur home.png
File:Portail utilisateur project.png
File:Portaill utilisateur scratch.png
File:Process and threads.png
File:Processes and threads-39.png
File:Processes and threads-GPU.png
File:Processes and threads.png
File:Project.png
File:Puissance.png
File:Puissance GPU.png
File:Puissance utilisé.png
File:Putty X11 forwarding.png
File:Putty basic.png
File:Putty ssh key.png
File:Putty username.png
File:Puttygen1.png
File:Puttygen2.png
File:Python gpu.png
File:Python gpu copy.png
File:Python launcher icon.png
File:QGIS launcher.png
File:QGIS window.png
File:QPU.png
File:Qgis window small.png
File:Qiskit counts.png
File:Qubit map.png
File:Qubit map v2.png
File:Question.png
File:RStudio launcher icon.png
File:Record control panel.png
File:Record control panel2.png
File:Regle-securite-default.png
File:Remmina-Ubuntu.png
File:Remote-Desktop-Connection-windows-FRN.png
File:Remote-Desktop-Connection-windows.png
File:Report of RAC 2025 results (EN).pdf
File:Ressource MPI trop de coeur -2.png
File:Ressource du noeud au complet.png
File:Ressource multiprocesseur non multifil.png
File:Ressources-GPU.png
File:Ressources.png
File:Ressources du noeud.png
File:Ressources utilisées détails-2.png
File:Ressources utilisées détails.png
File:Retrieve-instance-password-FR.png
File:Retrieve-instance-password.png
File:Rgu en.png
File:Rgu fr.png
File:Running threads multiprocesseur cpu-per-task-2.png
File:SPMD model.png
File:Scaling plot.png
File:Scanning-CCDB-QR-code.jpg
File:Scratch.png
File:Screen shot 2022-06-15 at 11.55.50 am.png
File:Screen shot 2022-06-20 at 5.20.04 pm.png
File:Screenshot 2026-02-18 at 4.18.02 PM.png
File:Screenshot 2026-02-18 at 4.18.31 PM.png
File:Screenshot 2026-02-18 at 4.41.24 PM.png
File:Screenshot 2026-02-18 at 4.42.38 PM.png
File:Secpol.png
File:Security groups.png
File:Security groups fr.png
File:SelectProfile.png
File:Select CephFS Network.png
File:Select Yubico OTP.png
File:Select view group usage edit.png
File:Select view group usage fr edit.png
File:Serial IO.png
File:Serial IO2.png
File:Setup diag.png
File:Shared responsibilities Cloud FRN.png
File:Show all ports.png
File:Show attached.png
File:Slides.pdf
File:Slurm portal account usage edit.png
File:Slurm portal account usage edit 2.png
File:Slurm portal account usage queued edit.png
File:Slurm portal account usage queued edit 2.png
File:Slurm portal account use cumulative edit.png
File:Slurm portal account use cumulative edit 2.png
File:Slurm portal account use duration edit.png
File:Slurm portal account use duration edit 2.png
File:Slurm portal def rawusage.png
File:Slurm portal hover total plotly edit.png
File:Slurm portal land edit.png
File:Slurm portal legend edit.png
File:Slurm portal parameter panel.png
File:Slurm portal select sys date.png
File:Smp.png
File:Software module selector.png
File:Sommaire utilisateur quotas.png
File:Source tab.png
File:Source tab fr.png
File:Ssh settings change.png
File:Ssh settings default.png
File:Stacks.png
File:StarCCM+ launcher.png
File:Status.png
File:Summary of the Environment.pdf
File:Systeme de fichiers-GPU.png
File:Système de fichier.png
File:Système de fichier -2.png
File:Système de fichier GPU.png
File:Système de fichier compte.png
File:Tableau vos instances.png
File:Tensorboard.png
File:Tensorboard launcher.png
File:Terminal launcher.png
File:Threads attack.png
File:Threads attack copy.png
File:Threads multifil.png
File:Threads multiprocesseur 64 coeurs.png
File:Threads multiprocesseur trop coeur-2.png
File:Threads série.png
File:TigerVNC-GrahamConnect.png
File:TigerVNC-GrahamDesktop.png
File:TigerVNC-GrahamLogin.png
File:TigervncConnectionDetails.PNG
File:TigervncLogin.PNG
File:Tiled multiply.png
File:Tiled multiply copy.png
File:Tons of software.png
File:Tons of software copy.png
File:Train.jpg
File:Trop de coeurs multifil.png
File:Trop de coeurs multifil - copie.png
File:Two.Six RGU equivalents.png
File:Two GPU equivalents.png
File:Two and a half core equivalents.png
File:Two core equivalents.png
File:Tâche GPU pour MIG.png
File:Tâche en cours-2.png
File:Tâches en cours-1.png
File:Untitled presentation.png
File:Updated screen shot 2022-06-08 at 7.34.48 am 1.png
File:Updated screen shot 2022-06-10 at 9.39.40 am.png
File:Upload image from volume EN.png
File:Upload volume from image EN.png
File:Upload volume from image FR.png
File:Utilisation compte GPU détails.png
File:Utilisation du compte.png
File:Utilisation détaillée par utilisateur.png
File:Utilisation en cours.png
File:VASP benchmark ENG.png
File:VM multi user cloud init.png
File:VNCviewerConnect.png
File:VNCviewerConnect2.png
File:VNCviewerConnect3.png
File:VSCode Detail Link.png
File:VSCode SSH Passphrase Prompt.png
File:VS Code launcher icon.png
File:Vasp-GPU-benchmark.pdf
File:Vasp-benchmark.jpg
File:Video button 24.png
File:Vidyo contacts controls.png
File:Vidyo contacts list.png
File:Vidyo control panel.png
File:Vidyo direct call.png
File:Vidyo external.png
File:Vidyo join room.png
File:Vidyo mail invite.jpg
File:Vidyo room status.png
File:Vidyo search contacts.png
File:Vidyo toolbar.png
File:Vipport.png
File:Vipport assoc.png
File:Visit201606.pdf
File:VisitScripting.pdf
File:Visit niagara-01.png
File:Visit niagara-02.png
File:Visit niagara-03.png
File:Volumes EN.png
File:Volumes FR.png
File:Vos tâches bottom-2.png
File:Vos tâches bottom.png
File:Vos tâches top-2.png
File:Vos tâches top.png
File:Vrrp pol.png
File:Vtune mpi profiling report.png
File:Warning sign 16px.png
File:Warning sign 24px.png
File:What is gpu.png
File:What is gpu copy.png
File:What is gpu copy 2.png
File:WinSCP ACL.png
File:WinSCP Configuration.png
File:WinSCP Path Configuration.png
File:WinSCP resolve error.png
File:WinSCP transfers.png
File:Windows-VM-Settings-FR.png
File:Windows-VM-Settings.png
File:Windows-VM-settings-FRN.png
File:Windows-launch-instance.png
File:Windows-launch-instance FRN.png
File:X2go-newsession.png
File:X2go-screen1.png
File:Yubico-Authenticator-Step3.png
File:Yubico-Authenticator-Step4.png
File:Yubico-Authenticator-Step6.png
File:Yubico-Authenticator-Step7.png
File:Yubico Manager OTP.png
File:Yubico Manager OTP configuration.png
MediaWiki:Common.css
MediaWiki:Mainpage
MediaWiki:Sidebar
MediaWiki:Sidebar-acknowledging-alliance
MediaWiki:Sidebar-acknowledging-alliance-link
MediaWiki:Sidebar-acknowledging-cc
MediaWiki:Sidebar-acknowledging-cc-link
MediaWiki:Sidebar-alliance
MediaWiki:Sidebar-alliance-main-page
MediaWiki:Sidebar-alliance-main-page-link
MediaWiki:Sidebar-aup
MediaWiki:Sidebar-aup-link
MediaWiki:Sidebar-authoring
MediaWiki:Sidebar-available-software
MediaWiki:Sidebar-available-software-link
MediaWiki:Sidebar-beluga-link
MediaWiki:Sidebar-beluga-link/en
MediaWiki:Sidebar-cc-main-page
MediaWiki:Sidebar-cc-main-page-link
MediaWiki:Sidebar-ccdb
MediaWiki:Sidebar-ccdb-link
MediaWiki:Sidebar-cedar-link
MediaWiki:Sidebar-cloud
MediaWiki:Sidebar-cloud-link
MediaWiki:Sidebar-compute-canada
MediaWiki:Sidebar-fir-link
MediaWiki:Sidebar-getting-an-account
MediaWiki:Sidebar-getting-an-account-link
MediaWiki:Sidebar-getting-started
MediaWiki:Sidebar-getting-started-link
MediaWiki:Sidebar-graham-link
MediaWiki:Sidebar-guidelines
MediaWiki:Sidebar-guidelines-link
MediaWiki:Sidebar-killarney-link
MediaWiki:Sidebar-known-issues
MediaWiki:Sidebar-known-issues-link
MediaWiki:Sidebar-legacy-resources
MediaWiki:Sidebar-mediawiki-help
MediaWiki:Sidebar-messages
MediaWiki:Sidebar-narval-link
MediaWiki:Sidebar-narval-link/en
MediaWiki:Sidebar-niagara-link
MediaWiki:Sidebar-nibi-link
MediaWiki:Sidebar-quantum-computing
MediaWiki:Sidebar-quantum-computing-link
MediaWiki:Sidebar-quantum-services
MediaWiki:Sidebar-rac
MediaWiki:Sidebar-rac-link
MediaWiki:Sidebar-resources
MediaWiki:Sidebar-rorqual-link
MediaWiki:Sidebar-running-jobs
MediaWiki:Sidebar-running-jobs-link
MediaWiki:Sidebar-storage
MediaWiki:Sidebar-storage-link
MediaWiki:Sidebar-support
MediaWiki:Sidebar-system-status
MediaWiki:Sidebar-system-status-link
MediaWiki:Sidebar-tamia-link
MediaWiki:Sidebar-technical-support
MediaWiki:Sidebar-technical-support-link
MediaWiki:Sidebar-trillium-link
MediaWiki:Sidebar-vulcan-link
MediaWiki:Sidebar-wiki-main-page
MediaWiki:Top-notice-ns-0
Template:!
Template:(
Template:)
Template:=
Template:Avertissement
Template:Box
Template:Callout
Template:Challenge
Template:Command
Template:Command2
Template:Command Temp
Template:Commande
Template:Commandes
Template:Commandes2
Template:Commands
Template:Commands2
Template:Draft
Template:Draft/en
Template:Ebauche
Template:Fichier
Template:File
Template:Getready
Template:Infobox Computer
Template:NOINDEX
Template:Note
Template:Objectives
Template:Oldid
Template:Outdated
Template:OutdatedStdEnv2020
Template:Panel
Template:Prerequisites
Template:Quote
Template:TOC limit
Template:To Do
Template:TrainingEventRow
Template:TrainingOpportunities
Template:Warning
Category:AI and Machine Learning
Category:Bioinformatics
Category:BiomolecularSimulation
Category:CC-Cloud
Category:CVMFS
Category:Cloud
Category:ComputationalChemistry
Category:Connecting
Category:Connecting/en
Category:Draft
Category:Migration2016
Category:Pages with video links
Category:SLURM
Category:Se connecter
Category:Sergiy
Category:Software
